"[\"{\\\"casNo\\\": \\\"12002-61-8\\\", \\\"name\\\": [\\\"Actinium(III) oxide\\\", \\\"Actinium sesquioxide\\\"], \\\"formula\\\": \\\"Ac2O3\\\", \\\"molecularWeight\\\": \\\"502.053 g/mol\\\", \\\"meltingpoint\\\": null, \\\"boilingpoint\\\": null, \\\"density\\\": null}\", \"{\\\"casNo\\\": \\\"7785-23-1\\\", \\\"name\\\": [\\\"Silver bromide\\\"], \\\"formula\\\": \\\"AgBr\\\", \\\"molecularWeight\\\": \\\"187.77 g/mol\\\", \\\"meltingpoint\\\": \\\"432 °C (810 °F; 705 K)\\\", \\\"boilingpoint\\\": \\\"1,502 °C (2,736 °F; 1,775 K) (decomposes)\\\", \\\"density\\\": \\\"6.473 g/cm3, solid\\\"}\", \"{\\\"casNo\\\": \\\"7783-89-3\\\", \\\"name\\\": [\\\"Silver bromate\\\"], \\\"formula\\\": \\\"AgBrO3\\\", \\\"molecularWeight\\\": \\\"235.770 g/mol\\\", \\\"meltingpoint\\\": \\\"309 °C (588 °F; 582 K)\\\", \\\"boilingpoint\\\": null, \\\"density\\\": \\\"5.206 g/cm3\\\"}\", \"{\\\"casNo\\\": \\\"506-64-9\\\", \\\"name\\\": [\\\"Silver cyanide\\\", \\\"Argentous cyanide\\\"], \\\"formula\\\": \\\"AgCN\\\", \\\"molecularWeight\\\": \\\"133.8856 g/mol\\\", \\\"meltingpoint\\\": \\\"335 °C (635 °F; 608 K) (decomposes)\\\", \\\"boilingpoint\\\": null, \\\"density\\\": \\\"3.943 g/cm3\\\"}\", \"{\\\"casNo\\\": \\\"563-63-3\\\", \\\"name\\\": [\\\"Silver acetate\\\", \\\"Acetic acid, silver(I) salt\\\", \\\"Silver ethanoate\\\", \\\" Argentous acetate\\\", \\\" Argentous ethanoate\\\"], \\\"formula\\\": \\\"AgC2H3O2\\\", \\\"molecularWeight\\\": \\\"166.912 g/mol\\\", \\\"meltingpoint\\\": null, \\\"boilingpoint\\\": \\\"decomposes at 220 °C\\\", \\\"density\\\": \\\"3.26 g/cm3, solid\\\"}\", \"{\\\"casNo\\\": \\\"7783-90-6\\\", \\\"name\\\": [\\\"Silver chloride\\\", \\\"Cerargyrite\\\", \\\"<a href=\\\\\\\"/wiki/Chlorargyrite\\\\\\\" title=\\\\\\\"Chlorargyrite\\\\\\\">Chlorargyrite\\\", \\\"Horn silver \\\", \\\" Argentous chloride\\\"], \\\"formula\\\": \\\"AgCl\\\", \\\"molecularWeight\\\": \\\"143.32 g·mol−1\\\", \\\"meltingpoint\\\": \\\"455 °C (851 °F; 728 K)\\\", \\\"boilingpoint\\\": \\\"1,547 °C (2,817 °F; 1,820 K)\\\", \\\"density\\\": \\\"5.56 g cm−3\\\"}\", \"{\\\"casNo\\\": \\\"7783-92-8\\\", \\\"name\\\": [\\\"Silver chlorate\\\", \\\"Argentous chlorate\\\"], \\\"formula\\\": \\\"AgClO3\\\", \\\"molecularWeight\\\": \\\"191.319 g/mol\\\", \\\"meltingpoint\\\": \\\"230 °C (446 °F; 503 K)\\\", \\\"boilingpoint\\\": \\\"250 °C (482 °F; 523 K) (decomposes)\\\", \\\"density\\\": \\\"4.443 g/cm3, solid\\\"}\", \"{\\\"casNo\\\": \\\"7783-93-9\\\", \\\"name\\\": [\\\"Silver perchlorate\\\", \\\"Perchloric acid, silver(1+) salt\\\", \\\"Argentous perchlorate\\\"], \\\"formula\\\": \\\"AgClO4\\\", \\\"molecularWeight\\\": \\\"207.319 g/mol\\\", \\\"meltingpoint\\\": \\\"486 °C (907 °F; 759 K) (decomposes)\\\", \\\"boilingpoint\\\": null, \\\"density\\\": \\\"2.806 g/cm3\\\"}\", \"{\\\"casNo\\\": \\\"7775-41-9\\\", \\\"name\\\": [\\\"Silver(I) fluoride\\\", \\\"Argentous fluoride \\\", \\\" Silver monofluoride\\\"], \\\"formula\\\": \\\"AgF\\\", \\\"molecularWeight\\\": \\\"126.8666 g·mol−1\\\", \\\"meltingpoint\\\": \\\"435 °C (815 °F; 708 K)\\\", \\\"boilingpoint\\\": \\\"1,159 °C (2,118 °F; 1,432 K)\\\", \\\"density\\\": \\\"5.852 g/cm3 (15 °C)\\\"}\", \"{\\\"casNo\\\": \\\"7783-95-1\\\", \\\"name\\\": [\\\"Silver(II) fluoride\\\", \\\"silver difluoride\\\"], \\\"formula\\\": \\\"AgF2\\\", \\\"molecularWeight\\\": \\\"145.865 g/mol\\\", \\\"meltingpoint\\\": \\\"690 °C (1,274 °F; 963 K)\\\", \\\"boilingpoint\\\": \\\"700 °C (1,292 °F; 973 K) (decomposes)\\\", \\\"density\\\": \\\"4.58 g/cm3\\\"}\"]"